data_29225-ICSD
#?2009 by Fachinformationszentrum Karlsruhe, and the U.S. Secretary of 
#Commerce on behalf of the United States.  All rights reserved.
_database_code_ICSD                29225
_audit_creation_date               1986/09/25
_chemical_name_systematic          'Lithium Cobalt(III) Oxide'
_chemical_formula_structural       'Li Co O2'
_chemical_formula_sum              'Co1 Li1 O2'
_publ_section_title
;
The Preparation, Crystallography, and Magnetic Properties of the Lix 
Co1-x O System
;
loop_
_citation_id
_citation_journal_abbrev
_citation_year
_citation_journal_volume
_citation_page_first
_citation_page_last
_citation_journal_id_ASTM
primary 'Journal of Physics and Chemistry of Solids' 1958 7 1 13 JPCSAW
_publ_author_name
;
Johnston, W.D.;Heikes, R.R.;Sestrich, D.E.
;
_cell_length_a                     2.8166
_cell_length_b                     2.8166
_cell_length_c                     14.052
_cell_angle_alpha                  90.
_cell_angle_beta                   90.
_cell_angle_gamma                  120.
_cell_volume                       96.54
_cell_formula_units_Z              3
_symmetry_space_group_name_H-M     'R -3 m H'
_symmetry_Int_Tables_number        166
_refine_ls_R_factor_all            0.11
loop_
_symmetry_equiv_pos_site_id
_symmetry_equiv_pos_as_xyz
  1	'x-y, -y, -z'
  2	'-x, -x+y, -z'
  3	'y, x, -z'
  4	'x-y, x, -z'
  5	'y, -x+y, -z'
  6	'-x, -y, -z'
  7	'-x+y, y, z'
  8	'x, x-y, z'
  9	'-y, -x, z'
 10	'-x+y, -x, z'
 11	'-y, x-y, z'
 12	'x, y, z'
 13	'x-y+2/3, -y+1/3, -z+1/3'
 14	'x-y+1/3, -y+2/3, -z+2/3'
 15	'-x+2/3, -x+y+1/3, -z+1/3'
 16	'-x+1/3, -x+y+2/3, -z+2/3'
 17	'y+2/3, x+1/3, -z+1/3'
 18	'y+1/3, x+2/3, -z+2/3'
 19	'x-y+2/3, x+1/3, -z+1/3'
 20	'x-y+1/3, x+2/3, -z+2/3'
 21	'y+2/3, -x+y+1/3, -z+1/3'
 22	'y+1/3, -x+y+2/3, -z+2/3'
 23	'-x+2/3, -y+1/3, -z+1/3'
 24	'-x+1/3, -y+2/3, -z+2/3'
 25	'-x+y+2/3, y+1/3, z+1/3'
 26	'-x+y+1/3, y+2/3, z+2/3'
 27	'x+2/3, x-y+1/3, z+1/3'
 28	'x+1/3, x-y+2/3, z+2/3'
 29	'-y+2/3, -x+1/3, z+1/3'
 30	'-y+1/3, -x+2/3, z+2/3'
 31	'-x+y+2/3, -x+1/3, z+1/3'
 32	'-x+y+1/3, -x+2/3, z+2/3'
 33	'-y+2/3, x-y+1/3, z+1/3'
 34	'-y+1/3, x-y+2/3, z+2/3'
 35	'x+2/3, y+1/3, z+1/3'
 36	'x+1/3, y+2/3, z+2/3'
loop_
_atom_type_symbol
_atom_type_oxidation_number
Co3+	3
Li1+	1
O2-	-2
loop_
_atom_site_label
_atom_site_type_symbol
_atom_site_symmetry_multiplicity
_atom_site_Wyckoff_symbol
_atom_site_fract_x
_atom_site_fract_y
_atom_site_fract_z
_atom_site_occupancy
_atom_site_attached_hydrogens
Li1 Li1+ 3 b 0 0 0.5 0.5 0 
Co1 Co3+ 3 b 0 0 0.5 0.5 0 
Li1 Li1+ 3 a 0 0 0 0.5 0 
Co1 Co3+ 3 a 0 0 0 0.5 0 
O1 O2- 6 c 0 0 0.26 1. 0 

#End of data_29225-ICSD


